
 displacements (vx,vy,vz) for set TIP and time  0.1000000E+01

        90 -5.052382E-17 -7.207451E-15  1.653461E-02

 forces (fx,fy,fz) for set TIP and time  0.1000000E+01

        90 -1.919992E-14  3.499284E-14  1.000000E+00
